
Host: Chanithas-MacBook-Pro.local

Timers On : Tue Feb  6 17:07:30 2024
Timers Off: Tue Feb  6 17:07:35 2024

Wall Time:        5.57 seconds

                                                       Time (seconds)
Module                                       User      System        Wall        Calls

--------------------------------------------------------------------------------------

**************************************************************************************
