
Host: Chanithas-MacBook-Pro.local

Timers On : Tue Feb  6 17:09:43 2024
Timers Off: Tue Feb  6 17:09:47 2024

Wall Time:        4.41 seconds

                                                       Time (seconds)
Module                                       User      System        Wall        Calls

--------------------------------------------------------------------------------------

**************************************************************************************
