
Host: Chanithas-MacBook-Pro.local

Timers On : Tue Feb  6 17:10:48 2024
Timers Off: Tue Feb  6 17:10:51 2024

Wall Time:        2.97 seconds

                                                       Time (seconds)
Module                                       User      System        Wall        Calls

--------------------------------------------------------------------------------------

**************************************************************************************

Host: Chanithas-MacBook-Pro.local

Timers On : Tue Feb  6 17:16:07 2024
Timers Off: Tue Feb  6 17:16:10 2024

Wall Time:        2.92 seconds

                                                       Time (seconds)
Module                                       User      System        Wall        Calls

--------------------------------------------------------------------------------------

**************************************************************************************

Host: Chanithas-MacBook-Pro.local

Timers On : Tue Feb  6 17:19:59 2024
Timers Off: Tue Feb  6 17:20:04 2024

Wall Time:        4.94 seconds

                                                       Time (seconds)
Module                                       User      System        Wall        Calls

--------------------------------------------------------------------------------------

**************************************************************************************

Host: Chanithas-MacBook-Pro.local

Timers On : Tue Feb  6 21:22:52 2024
Timers Off: Tue Feb  6 21:22:59 2024

Wall Time:        6.52 seconds

                                                       Time (seconds)
Module                                       User      System        Wall        Calls

--------------------------------------------------------------------------------------

**************************************************************************************

Host: Chanithas-MacBook-Pro.local

Timers On : Tue Feb  6 21:28:02 2024
Timers Off: Tue Feb  6 21:28:07 2024

Wall Time:        4.98 seconds

                                                       Time (seconds)
Module                                       User      System        Wall        Calls

--------------------------------------------------------------------------------------

**************************************************************************************

Host: Chanithas-MacBook-Pro.local

Timers On : Tue Feb  6 21:32:39 2024
Timers Off: Tue Feb  6 21:42:35 2024

Wall Time:      596.20 seconds

                                                       Time (seconds)
Module                                       User      System        Wall        Calls

--------------------------------------------------------------------------------------

**************************************************************************************
